# vtk DataFile Version 1.0
unstructured grid
ascii
DATASET UNSTRUCTURED_GRID
points 31792 float
0.0800216 -0.0596428 0 
0.00128732 0.00159165 0 
0.00227961 -0.00102548 0 
0.0795133 -0.0601368 0 
-0.0546216 0.01 0 
0.000495206 0.025 0 
0.0800549 -0.035 0 
0.135172 -0.08 0 
-0.0546216 -0.0451168 0 
0.000495206 -0.0301168 0 
0.0800549 -0.0901168 0 
0.135172 -0.135117 0 
-0.0546216 -0.0451168 -0.00551168 
0.000495206 -0.0301168 -0.00551168 
0.0800549 -0.0901168 -0.00551168 
0.135172 -0.135117 -0.00551168 
0.135172 -0.08 -0.00551168 
0.0800549 -0.035 -0.00551168 
0.000495206 0.025 -0.00551168 
-0.0546216 0.01 -0.00551168 
0.00128732 0.00159165 -0.00551168 
0.00227961 -0.00102548 -0.00551168 
0.0795133 -0.0601368 -0.00551168 
0.0800216 -0.0596428 -0.00551168 
0.00151278 -0.000971017 0 
0.000992792 -0.000750659 0 
0.000670557 -0.00039439 0 
0.000512784 3.30354e-05 0 
0.000525014 0.000513074 0 
0.000772815 0.00102206 0 
0.00152396 0.00179355 0 
0.00178126 0.00199108 0 
0.00205732 0.00218701 0 
0.00234971 0.00238507 0 
0.00265617 0.00258938 0 
0.00297682 0.00280085 0 
0.00331267 0.00301904 0 
0.00366487 0.00324331 0 
0.00403467 0.0034728 0 
0.00442342 0.00370639 0 
0.00483256 0.00394267 0 
0.00526359 0.00417989 0 
0.00571774 0.00441655 0 
0.00619584 0.00465171 0 
0.00669865 0.00488442 0 
0.00722696 0.00511365 0 
0.0077815 0.00533827 0 
0.00836302 0.00555704 0 
0.00897237 0.0057682 0 
0.00961051 0.00596924 0 
0.0102784 0.00615719 0 
0.0109767 0.0063287 0 
0.0117058 0.00648075 0 
0.0124656 0.00661214 0 
0.0132557 0.00672218 0 
0.0140759 0.00681037 0 
0.0149257 0.00687578 0 
0.0158049 0.00691731 0 
0.016713 0.00693377 0 
0.0176496 0.00692346 0 
0.0186139 0.00688441 0 
0.0196052 0.00681355 0 
0.0206222 0.00670719 0 
0.0216632 0.00656122 0 
0.0227264 0.00637207 0 
0.0238107 0.00614221 0 
0.0249156 0.00587552 0 
0.0260397 0.00557072 0 
0.0271805 0.00522455 0 
0.0283353 0.00483311 0 
0.0295012 0.00439422 0 
0.0306764 0.00390812 0 
0.0318578 0.00337322 0 
0.0330373 0.00277816 0 
0.0342135 0.00212648 0 
0.035388 0.00142722 0 
0.0365608 0.000684232 0 
0.0377303 -0.000100503 0 
0.0388911 -0.000930702 0 
0.0400368 -0.00181077 0 
0.0411637 -0.00274015 0 
0.0422707 -0.00371534 0 
0.043357 -0.00473276 0 
0.0444217 -0.00578889 0 
0.045465 -0.00687981 0 
0.0464877 -0.00800087 0 
0.0474907 -0.00914794 0 
0.0484679 -0.0103229 0 
0.0494092 -0.0115302 0 
0.0503051 -0.0127725 0 
0.0511545 -0.0140461 0 
0.0519764 -0.0153343 0 
0.0527914 -0.0166215 0 
0.0536026 -0.0179037 0 
0.0544095 -0.0191789 0 
0.0552114 -0.0204458 0 
0.0560072 -0.0217029 0 
0.056796 -0.022949 0 
0.0575768 -0.0241827 0 
0.0583491 -0.0254028 0 
0.059112 -0.0266081 0 
0.0598647 -0.0277974 0 
0.0606067 -0.0289697 0 
0.0613373 -0.0301239 0 
0.0620559 -0.0312592 0 
0.0627619 -0.0323747 0 
0.0634549 -0.0334696 0 
0.0641345 -0.0345432 0 
0.0648003 -0.0355949 0 
0.0654517 -0.0366241 0 
0.0660885 -0.0376305 0 
0.0667105 -0.0386137 0 
0.0673178 -0.039573 0 
0.0679102 -0.0405082 0 
0.0684878 -0.0414192 0 
0.0690496 -0.0423061 0 
0.0695953 -0.0431693 0 
0.0701242 -0.0440091 0 
0.0706369 -0.0448253 0 
0.0711347 -0.0456171 0 
0.0716184 -0.0463843 0 
0.0720888 -0.0471266 0 
0.0725459 -0.0478445 0 
0.0729887 -0.0485389 0 
0.0734168 -0.0492106 0 
0.0738296 -0.0498604 0 
0.074227 -0.0504888 0 
0.0746099 -0.0510958 0 
0.0749795 -0.0516813 0 
0.0753364 -0.0522456 0 
0.0756817 -0.0527887 0 
0.0760158 -0.0533111 0 
0.0763385 -0.0538136 0 
0.0766492 -0.0542975 0 
0.0769472 -0.0547638 0 
0.077232 -0.0552134 0 
0.0775032 -0.055647 0 
0.0777607 -0.0560652 0 
0.0780043 -0.0564686 0 
0.0782357 -0.0568567 0 
0.0784573 -0.0572287 0 
0.0786711 -0.0575841 0 
0.0788789 -0.0579228 0 
0.0790817 -0.0582451 0 
0.0792803 -0.0585514 0 
0.0794752 -0.0588423 0 
0.0796667 -0.0591186 0 
0.0798548 -0.0593812 0 
0.0798522 -0.0598075 0 
0.0796827 -0.0599722 0 
0.0792831 -0.059981 0 
0.0790628 -0.0597923 0 
0.0788472 -0.0595796 0 
0.0786278 -0.059352 0 
0.0783963 -0.059117 0 
0.0781546 -0.0588721 0 
0.0779081 -0.0586113 0 
0.077659 -0.0583321 0 
0.0774062 -0.0580352 0 
0.0771491 -0.0577206 0 
0.0768888 -0.0573871 0 
0.0766267 -0.057033 0 
0.0763646 -0.0566568 0 
0.0761015 -0.056259 0 
0.0758322 -0.0558425 0 
0.0755541 -0.0554084 0 
0.0752662 -0.0549567 0 
0.0749675 -0.0544874 0 
0.0746565 -0.0540009 0 
0.0743326 -0.053497 0 
0.0739956 -0.0529752 0 
0.0736451 -0.0524352 0 
0.073281 -0.0518765 0 
0.0729032 -0.0512987 0 
0.0725111 -0.0507018 0 
0.0721042 -0.0500855 0 
0.0716819 -0.04945 0 
0.0712435 -0.0487953 0 
0.0707884 -0.0481215 0 
0.0703163 -0.0474287 0 
0.0698266 -0.0467169 0 
0.0693188 -0.0459865 0 
0.0687925 -0.0452376 0 
0.068247 -0.0444709 0 
0.0676819 -0.0436867 0 
0.0670968 -0.0428855 0 
0.0664912 -0.042068 0 
0.0658647 -0.0412349 0 
0.065217 -0.0403869 0 
0.0645477 -0.039525 0 
0.0638566 -0.0386499 0 
0.0631436 -0.0377627 0 
0.0624086 -0.0368643 0 
0.0616518 -0.0359557 0 
0.0608731 -0.0350382 0 
0.060073 -0.0341126 0 
0.0592518 -0.0331801 0 
0.0584102 -0.0322417 0 
0.0575488 -0.0312985 0 
0.0566685 -0.0303514 0 
0.0557705 -0.0294011 0 
0.0548561 -0.0284485 0 
0.0539259 -0.0274948 0 
0.0529802 -0.0265421 0 
0.0520185 -0.025593 0 
0.05104 -0.0246509 0 
0.0500449 -0.023718 0 
0.049034 -0.0227963 0 
0.0480085 -0.0218871 0 
0.0469698 -0.0209919 0 
0.0459194 -0.0201117 0 
0.0448593 -0.0192468 0 
0.0437916 -0.018398 0 
0.0427179 -0.0175658 0 
0.0416398 -0.0167512 0 
0.0405581 -0.0159561 0 
0.0394738 -0.015182 0 
0.0383879 -0.0144304 0 
0.0373017 -0.0137024 0 
0.0362164 -0.0129992 0 
0.0351334 -0.0123216 0 
0.0340541 -0.0116699 0 
0.0329803 -0.0110444 0 
0.0319135 -0.0104451 0 
0.0308551 -0.00987173 0 
0.0298073 -0.00932316 0 
0.0287723 -0.00879716 0 
0.0277519 -0.0082922 0 
0.0267471 -0.00780818 0 
0.0257582 -0.00734595 0 
0.0247843 -0.00690931 0 
0.0238259 -0.00649867 0 
0.0228857 -0.00610923 0 
0.0219648 -0.00573937 0 
0.0210638 -0.00538856 0 
0.0201831 -0.00505619 0 
0.0193233 -0.00474172 0 
0.0184844 -0.00444466 0 
0.0176668 -0.00416453 0 
0.0168706 -0.00390088 0 
0.0160959 -0.00365321 0 
0.0153426 -0.00342099 0 
0.0146108 -0.00320378 0 
0.0139004 -0.00300144 0 
0.0132111 -0.00281342 0 
0.012543 -0.00263856 0 
0.0118959 -0.00247608 0 
0.0112696 -0.00232588 0 
0.0106637 -0.00218777 0 
0.010078 -0.0020611 0 
0.00951209 -0.00194507 0 
0.00896578 -0.00183898 0 
0.00843868 -0.00174231 0 
0.00793043 -0.0016545 0 
0.00744062 -0.00157497 0 
0.00696888 -0.00150311 0 
0.00651478 -0.00143832 0 
0.0060779 -0.00138008 0 
0.00565779 -0.0013279 0 
0.00525399 -0.00128133 0 
0.00486606 -0.00123994 0 
0.00449355 -0.00120301 0 
0.00413607 -0.00116957 0 
0.00379317 -0.00113875 0 
0.00346441 -0.00110986 0 
0.00314928 -0.00108287 0 
0.00284719 -0.00105907 0 
0.00255759 -0.00103968 0 
-0.052721 -0.0445996 0 
-0.0508204 -0.0440823 0 
-0.0489199 -0.0435651 0 
-0.0470193 -0.0430478 0 
-0.0451187 -0.0425306 0 
-0.0432181 -0.0420134 0 
-0.0413175 -0.0414961 0 
-0.039417 -0.0409789 0 
-0.0375164 -0.0404616 0 
-0.0356158 -0.0399444 0 
-0.0337152 -0.0394271 0 
-0.0318146 -0.0389099 0 
-0.0299141 -0.0383927 0 
-0.0280135 -0.0378754 0 
-0.0261129 -0.0373582 0 
-0.0242123 -0.0368409 0 
-0.0223117 -0.0363237 0 
-0.0204112 -0.0358065 0 
-0.0185106 -0.0352892 0 
-0.01661 -0.034772 0 
-0.0147094 -0.0342547 0 
-0.0128088 -0.0337375 0 
-0.0109083 -0.0332202 0 
-0.00900769 -0.032703 0 
-0.00710711 -0.0321858 0 
-0.00520653 -0.0316685 0 
-0.00330595 -0.0311513 0 
-0.00140537 -0.030634 0 
0.00181741 -0.0299699 0 
0.00314331 -0.0298615 0 
0.00447182 -0.0297919 0 
0.0058018 -0.0297612 0 
0.0071321 -0.0297697 0 
0.00846158 -0.0298173 0 
0.0097891 -0.0299039 0 
0.0111135 -0.030029 0 
0.0124338 -0.0301924 0 
0.0137488 -0.0303935 0 
0.0150577 -0.0306316 0 
0.0163594 -0.030906 0 
0.0176532 -0.0312159 0 
0.0189382 -0.0315603 0 
0.0202137 -0.0319383 0 
0.0214791 -0.0323488 0 
0.0227338 -0.0327908 0 
0.0239775 -0.0332633 0 
0.0252095 -0.0337652 0 
0.0264297 -0.0342952 0 
0.0276377 -0.0348525 0 
0.0288334 -0.0354358 0 
0.0300165 -0.0360441 0 
0.031187 -0.0366764 0 
0.0323448 -0.0373317 0 
0.0334899 -0.0380089 0 
0.0346223 -0.0387071 0 
0.035742 -0.0394255 0 
0.0368492 -0.040163 0 
0.037944 -0.0409189 0 
0.0390264 -0.0416924 0 
0.0400966 -0.0424826 0 
0.0411549 -0.0432889 0 
0.0422012 -0.0441105 0 
0.0432359 -0.0449467 0 
0.0442591 -0.0457969 0 
0.0452711 -0.0466606 0 
0.0462719 -0.047537 0 
0.0472619 -0.0484258 0 
0.0482412 -0.0493263 0 
0.04921 -0.050238 0 
0.0501686 -0.0511605 0 
0.0511171 -0.0520933 0 
0.0520558 -0.0530361 0 
0.0529848 -0.0539883 0 
0.0539044 -0.0549497 0 
0.0548148 -0.0559198 0 
0.0557161 -0.0568984 0 
0.0566085 -0.057885 0 
0.0574923 -0.0588794 0 
0.0583676 -0.0598813 0 
0.0592346 -0.0608904 0 
0.0600934 -0.0619064 0 
0.0609443 -0.0629291 0 
0.0617874 -0.0639582 0 
0.0626229 -0.0649935 0 
0.0634509 -0.0660348 0 
0.0642716 -0.0670819 0 
0.0650851 -0.0681345 0 
0.0658917 -0.0691926 0 
0.0666913 -0.0702558 0 
0.0674843 -0.071324 0 
0.0682706 -0.0723971 0 
0.0690505 -0.0734749 0 
0.0698241 -0.0745573 0 
0.0705915 -0.075644 0 
0.0713528 -0.0767351 0 
0.0721081 -0.0778302 0 
0.0728576 -0.0789294 0 
0.0736014 -0.0800324 0 
0.0743396 -0.0811392 0 
0.0750722 -0.0822497 0 
0.0757995 -0.0833637 0 
0.0765214 -0.0844812 0 
0.0772381 -0.085602 0 
0.0779497 -0.086726 0 
0.0786564 -0.0878532 0 
0.079358 -0.0889835 0 
0.0811797 -0.0910352 0 
0.0823046 -0.0919535 0 
0.0834294 -0.0928719 0 
0.0845542 -0.0937903 0 
0.085679 -0.0947086 0 
0.0868039 -0.095627 0 
0.0879287 -0.0965454 0 
0.0890535 -0.0974637 0 
0.0901784 -0.0983821 0 
0.0913032 -0.0993005 0 
0.092428 -0.100219 0 
0.0935529 -0.101137 0 
0.0946777 -0.102056 0 
0.0958025 -0.102974 0 
0.0969274 -0.103892 0 
0.0980522 -0.104811 0 
0.099177 -0.105729 0 
0.100302 -0.106647 0 
0.101427 -0.107566 0 
0.102552 -0.108484 0 
0.103676 -0.109403 0 
0.104801 -0.110321 0 
0.105926 -0.111239 0 
0.107051 -0.112158 0 
0.108176 -0.113076 0 
0.109301 -0.113994 0 
0.110425 -0.114913 0 
0.11155 -0.115831 0 
0.112675 -0.116749 0 
0.1138 -0.117668 0 
0.114925 -0.118586 0 
0.11605 -0.119505 0 
0.117174 -0.120423 0 
[...]
CELL_DATA 30542
SCALARS rho float
LOOKUP_TABLE default
0.674535
0.674518
0.674537
0.67449
0.674501
0.674527
0.674505
0.674537
0.674475
0.674512
0.674457
0.674485
0.674532
0.674522
0.674419
0.67447
0.67443
0.674541
0.674523
0.67442
0.674513
0.674455
0.674507
0.674495
0.674545
0.674497
0.67444
0.674481
0.674539
0.67442
0.674433
0.674445
0.674546
0.674535
0.674522
0.674421
0.674444
0.674465
0.674452
0.674482
0.674416
0.674536
0.674543
0.674418
0.67443
0.674463
0.674435
0.674423
0.674416
0.674446
0.674428
0.674417
0.674503
0.674498
0.674543
0.67444
0.674519
0.674514
0.674547
0.674494
0.67454
0.674542
0.674481
0.674449
0.674415
0.674416
0.674517
0.674485
0.67443
0.674466
0.674488
0.674531
0.674511
0.674492
0.674544
0.674525
0.674454
0.674421
0.674535
0.674418
0.67451
0.6745
0.674445
0.674414
0.674431
0.674473
0.674464
0.674547
0.674543
0.674426
0.674426
0.674443
0.674413
0.674539
0.674443
0.674545
0.674434
0.674411
0.674528
0.674542
0.67446
0.674536
0.674483
0.674545
0.674409
0.674506
0.6745
0.674534
0.674446
0.674471
0.674417
0.674488
0.674459
0.674418
0.674415
0.674421
0.674525
0.674445
0.674541
0.674517
0.674496
0.67455
0.674433
0.674428
0.674474
0.674414
0.674431
0.674442
0.674458
0.674522
0.674411
0.674497
0.674487
0.674483
0.674515
0.674447
0.674545
0.674549
0.674421
0.674465
0.674533
0.674417
0.674424
0.674415
0.674529
0.674534
0.674498
0.674416
0.674556
0.674472
0.674464
0.674518
0.674418
0.67441
0.674545
0.674432
0.674435
0.674531
0.674455
0.674506
0.674489
0.674411
0.674429
0.674551
0.674414
0.674443
0.674499
0.674542
0.674448
0.674524
0.674418
0.674509
0.674544
0.674484
0.674422
0.674408
0.674467
0.674558
0.674553
0.674479
0.674556
0.674414
0.674496
0.674419
0.674427
0.674459
0.674555
0.67446
0.674409
0.674434
0.674494
0.674421
0.674531
0.674475
0.674405
0.674507
0.674556
0.674522
0.67453
0.674502
0.674556
0.674441
0.674439
0.67441
0.674428
0.67456
0.67441
0.67448
0.674548
0.674409
0.674546
0.674426
0.674456
0.674432
0.674403
0.67446
0.67454
0.674415
0.674539
0.674447
0.674495
0.674471
0.674513
0.674413
0.67456
0.674472
0.674403
0.674502
0.674528
0.674561
0.674419
0.674413
0.674485
0.674555
0.674406
0.674566
0.674462
0.6744
0.674555
0.674527
0.674422
0.674569
0.674439
0.674509
0.67442
0.67448
0.674494
0.674454
0.674399
0.674503
0.674568
0.674545
0.674437
0.674409
0.674394
0.674574
0.674544
0.674518
0.674567
0.674473
0.674537
0.674406
0.67456
0.674483
0.674414
0.674427
0.674537
0.674394
0.674456
0.674573
0.674397
0.674564
0.674553
0.674512
0.674444
0.674395
0.674391
0.674473
0.674565
0.674556
0.674456
0.674503
0.674407
0.674431
0.674417
0.674466
0.674503
0.674464
0.674578
0.674389
0.674491
0.674388
0.67454
0.674416
0.674573
0.674584
0.674584
0.674398
0.674526
0.674519
0.674544
0.674481
0.674389
0.674494
0.674585
0.674404
0.67445
0.674565
0.674382
0.674579
0.674589
0.674434
0.67439
0.67451
0.674563
0.674379
0.674466
0.674402
0.674384
0.67446
0.674419
0.674553
0.674425
0.674403
0.674495
0.674587
0.674536
0.674556
0.67444
0.674587
0.674393
0.67447
0.674577
0.674454
0.674531
0.67439
0.674479
0.674443
0.674501
0.6746
0.674579
0.674505
0.674372
0.674398
0.674603
0.674372
0.674585
0.67437
0.674375
0.674599
0.674596
0.674409
0.674522
0.67441
0.674398
0.674562
0.674547
0.674479
0.674446
0.674546
0.674436
0.674573
0.67461
0.674493
0.674374
0.674382
0.674613
0.674359
0.674433
0.674595
0.674513
0.674381
0.674612
0.674364
0.67436
0.674357
0.674597
0.674592
0.674473
0.674364
0.674611
0.674404
0.674562
0.674576
0.674382
0.674532
0.674406
0.674419
0.674535
0.67459
0.674612
0.674467
0.67437
0.674365
0.674421
0.674553
0.674355
0.674458
0.674626
0.674613
0.674445
0.674625
0.674625
0.674619
0.674373
0.674625
0.674494
0.674503
0.674384
0.674338
0.674342
0.674522
0.674348
0.674371
0.674483
0.674388
0.674588
0.674339
0.674581
0.674571
0.674353
0.67464
0.674416
0.674643
0.674354
0.674627
0.674551
0.674335
0.674629
0.67442
0.67461
0.67462
0.67443
0.674439
0.674639
0.674351
0.674644
0.674335
0.674331
0.67457
0.674502
0.674602
0.674641
0.674374
0.674648
0.674336
0.67465
0.674345
0.674354
0.67463
0.674393
0.674533
0.674548
0.674633
0.674642
0.674487
0.674339
0.674602
0.674378
0.674582
0.674432
0.674399
0.674523
0.67444
0.674308
0.674313
0.674632
0.674306
0.674349
0.67456
0.674677
0.67449
0.674661
0.674674
0.674624
0.674313
0.674455
0.674591
0.674325
0.674339
0.674511
0.674652
0.674458
0.674301
0.674316
0.674299
0.674603
0.674389
0.67464
0.6743
0.674355
0.674307
0.674409
0.674573
0.674686
0.674675
0.674615
0.674689
0.67442
0.674395
0.674686
0.674323
0.674685
0.674307
0.674652
0.674666
0.674529
0.674523
0.674325
0.674505
0.674293
0.674359
0.67427
0.674575
0.674273
0.674407
0.67462
0.674276
0.674451
0.674672
0.674335
0.674711
0.674445
0.674708
0.67428
0.674585
0.674717
0.674337
0.674689
0.674546
0.674281
0.674368
0.674295
0.674422
0.674505
0.674644
0.674258
0.674672
0.674421
0.674557
0.6743
0.674346
0.674606
0.674262
0.67448
0.674693
0.674726
0.674266
0.674384
0.674363
0.674719
0.67472
0.674253
0.674652
0.674252
0.674717
0.674672
0.674309
0.674638
0.674621
0.674272
0.674499
0.674733
0.674464
0.674722
0.674368
0.674259
0.674695
0.674398
0.67452
0.674315
0.674552
0.674413
0.67423
0.674388
0.674262
0.674333
0.674745
0.674243
0.674557
0.674226
0.674759
0.674477
0.674319
0.674752
0.674631
0.674228
0.674677
0.674223
0.67453
0.674296
0.674766
0.674659
0.67464
0.674711
0.674503
0.674226
0.674342
0.674278
0.674362
0.674774
0.674208
0.67424
0.674337
0.674582
0.674253
0.674405
0.674409
0.674779
0.674663
0.674441
0.674727
0.674613
0.674757
0.674442
0.674207
0.67459
0.674195
0.674694
0.674215
0.674709
0.674624
0.67419
0.674781
0.674377
0.674752
0.674539
0.674804
0.674299
0.674803
0.674513
0.674272
0.674193
0.674252
0.674335
0.674173
0.674811
0.6748
0.674768
0.674586
0.674371
0.674214
0.674165
0.674695
0.674574
0.674203
0.674452
0.674463
0.674183
0.674813
0.674642
0.674549
0.674725
0.674503
0.674728
0.674483
0.674345
0.67415
0.674667
0.674306
0.67417
0.674224
0.674682
0.674153
0.674139
0.674618
0.674849
0.674792
0.67428
0.67485
0.674195
0.67471
0.674244
0.674603
0.674819
0.674414
0.674386
0.674128
0.674175
0.674775
0.674837
0.674133
0.67443
0.674873
0.674126
0.674767
0.674367
0.674477
0.674647
0.674231
0.674258
0.674113
0.674557
0.674533
0.674802
0.674112
0.674842
0.674718
0.674643
0.674887
0.674577
0.674108
0.674149
0.67444
0.674885
0.674516
0.674879
0.674863
0.674903
0.674291
0.674922
0.674754
0.674766
0.674599
0.674334
0.674807
0.674127
0.67419
0.674456
0.674188
0.674092
0.674249
0.674684
0.674087
0.674502
0.674074
0.674104
0.674328
0.674153
0.67406
0.674855
0.674682
0.674883
0.674926
0.674059
0.674611
0.674137
0.674274
0.674883
0.674204
0.674861
0.674407
0.674804
0.674948
0.674505
0.674785
0.674953
0.674238
0.674935
0.674841
0.674611
0.674343
0.674656
0.674355
0.674427
0.674048
0.674722
0.674024
0.674073
0.674023
0.674186
0.674744
0.674014
0.674938
0.674545
0.674452
0.674102
0.674384
0.674071
0.674593
0.673994
0.674559
0.674776
0.674157
0.674948
0.67498
0.674671
0.674992
0.674003
0.674903
0.674234
0.674901
0.675032
0.674105
0.674871
0.674296
0.674464
0.674083
0.674242
0.674688
0.674513
0.674948
0.674324
0.674939
0.674176
0.674993
0.673968
0.673984
0.675038
0.673983
0.674428
0.674004
0.674646
0.67484
0.674028
0.674128
0.673949
0.674381
0.674883
0.674788
0.674257
0.674543
0.673944
0.673931
0.675058
0.674695
0.674364
0.674429
0.674072
0.674327
0.674746
0.675078
0.674476
0.674032
0.673917
0.67501
0.674914
0.673911
0.67411
0.674569
0.673918
0.67462
0.673977
0.675039
0.674636
0.674841
0.673953
0.674187
0.674869
0.673863
0.675111
0.674947
0.675083
0.675124
0.674124
0.674779
0.674196
0.675092
0.674053
0.674456
0.674998
0.675068
0.673866
0.67436
0.675145
0.67413
0.67428
0.674424
0.674772
0.675011
0.67452
0.674919
0.673834
0.675055
0.674716
0.673853
0.674212
0.673999
0.673883
0.674641
0.675185
0.674222
0.673846
0.674285
0.675165
0.673888
0.674407
0.674795
0.674897
0.673814
0.675078
0.674338
0.673777
0.674044
0.673986
0.674462
0.673801
0.674722
0.675147
0.675229
0.675204
0.674849
0.674044
0.674548
0.673913
0.6752
0.675043
0.67455
0.67376
0.675121
0.673823
0.675002
0.674707
0.67515
0.673849
0.675252
0.674997
0.673897
0.674146
0.674475
0.674289
0.673692
0.675279
0.675093
0.674171
0.675254
0.674864
0.674063
0.675225
0.674288
0.673718
0.674367
0.674641
0.674013
0.675126
0.674737
0.674587
0.674872
0.675224
0.674956
0.674071
0.674195
0.67527
0.674267
0.675182
0.6748
0.675354
0.673681
0.674434
0.674364
0.673654
0.673739
0.675224
0.673805
0.67483
0.675043
0.674671
0.67371
0.673835
0.674389
0.673951
0.673641
0.675357
0.675388
0.674485
0.675203
0.675308
0.673586
0.674972
0.673924
0.673653
0.675397
0.675288
0.675406
0.67467
0.673866
0.674145
0.675269
0.673742
0.675157
0.674244
0.673715
0.673634
0.674316
0.673558
0.673837
0.674773
0.674472
0.675404
0.674032
0.675394
0.675246
0.675042
0.674694
0.675444
0.674316
0.673948
0.673489
0.674494
0.67486
0.67458
0.674035
0.674207
0.673938
0.67535
0.6744
0.675509
0.675029
0.675513
0.674161
0.673511
0.674599
0.673786
0.675227
0.675393
0.674073
0.673527
0.674865
0.673582
0.675258
0.673638
0.674984
0.674382
0.67478
0.673439
0.675457
0.675173
0.675508
0.673828
0.675156
0.673484
0.67497
0.673716
0.675574
0.67558
0.674027
0.675457
0.674113
0.673437
0.673664
0.673641
0.675599
0.674333
0.673434
0.673521
0.675524
0.674617
0.67422
0.67559
0.674593
0.673345
0.675355
0.673506
0.673859
0.675444
0.674778
0.674371
0.673341
0.673432
0.673767
0.67484
0.675611
0.675217
0.675641
0.674044
0.675698
0.675058
0.673747
0.674687
0.675694
0.673939
0.674489
0.675431
0.675244
0.674733
0.674434
0.675523
0.67453
0.67505
0.674104
0.673527
0.674144
0.673296
0.673585
0.673816
0.675175
0.673206
0.673912
0.674225
0.673454
0.675177
0.675671
0.673279
0.673643
0.673366
0.675692
0.675329
0.675414
0.675777
0.67486
0.673225
0.675781
0.674972
0.675015
0.673971
0.675621
0.675812
0.675691
0.674664
0.675373
0.67453
0.673268
0.675675
0.673259
0.675486
0.673596
0.673514
0.67343
0.674611
0.674143
0.675822
0.674729
0.674393
0.673345
0.673181
0.675251
0.674771
0.675353
0.6759
0.673706
0.675252
0.673346
0.673595
0.674234
0.675915
0.674252
0.675878
0.674394
0.673036
0.673879
0.674987
0.675581
0.675865
0.675144
0.67452
0.675421
0.673912
0.673385
0.675685
0.675801
0.673021
0.67316
0.675649
0.674867
0.674006
0.673359
0.67596
0.673578
0.673201
0.673055
0.673748
0.675268
0.673435
0.674041
0.67576
0.676011
0.676046
0.675474
0.672919
0.674818
0.676037
0.675157
0.672925
0.673178
0.674465
0.673687
0.673064
0.67561
0.674212
0.672922
0.67555
0.675971
0.674565
0.675987
0.676044
0.675687
0.673308
0.675193
0.673215
0.674054
0.674622
0.675421
0.675913
0.673013
0.672998
0.674859
0.676165
0.67617
0.67339
0.674067
0.673581
0.675005
0.674261
0.673308
0.674716
0.673071
0.675921
0.674303
0.675181
0.676219
0.674453
0.673405
0.673123
0.673159
0.675869
0.675597
0.67606
0.676187
0.672724
0.675776
0.672707
0.673918
0.675042
0.675414
0.676289
0.673637
0.676261
0.673683
0.672797
0.676342
0.673845
0.675517
0.674684
0.672665
0.676048
0.672894
0.674289
0.672738
0.676359
0.673769
0.675961
0.675389
0.675056
0.673296
0.676394
0.675716
0.674477
0.674172
0.674724
0.672551
0.675976
0.674012
0.672593
0.675827
0.674562
0.672867
0.672535
0.673041
0.674848
0.673329
0.676358
0.673942
0.675048
0.67347
0.676305
0.676274
0.673414
0.674105
0.676411
0.672613
0.672704
0.6755
0.6749
0.67307
0.675277
0.672682
0.676652
0.676611
0.676144
0.675904
0.674254
0.675414
0.673751
0.672267
0.674452
0.673712
0.676583
0.676204
0.673552
0.674472
0.673879
0.675238
0.672828
0.675949
0.673003
0.676703
0.674854
0.67281
0.672514
0.676076
0.676386
0.672299
0.676674
0.674111
0.676424
0.67576
0.67668
0.672251
0.672651
0.676757
0.676341
0.672363
0.674655
0.672196
0.673353
0.672166
0.674269
0.673888
0.67586
0.676178
0.674924
0.67532
0.675687
0.674118
0.673521
0.672933
0.672218
0.673927
0.673289
0.676738
0.675061
0.674533
0.676289
0.676685
0.675163
0.676969
0.673029
0.676745
0.672734
0.6721
0.676443
0.672429
0.672244
0.676978
0.672298
0.674742
0.676942
0.67588
0.673701
0.676934
0.674557
0.67433
0.671934
0.672355
0.676117
0.671886
0.675603
0.673432
0.677052
0.673133
0.676397
0.676296
0.675708
0.67699
0.674142
0.677097
0.675009
0.672908
0.673836
0.674363
0.676693
0.671891
0.674752
0.672111
0.676836
0.677247
0.676831
0.673853
0.675347
0.674091
0.676197
0.673444
0.677198
0.675589
0.672677
0.672283
0.676695
0.671953
0.672447
0.671664
0.671757
0.675616
0.67613
0.673978
0.675945
0.674708
0.672249
0.677036
0.673129
0.671634
0.673697
0.671633
0.676568
0.672354
0.67178
0.675194
0.673182
0.677196
0.676769
0.674471
0.675509
0.677482
0.677134
0.672811
0.673592
0.677481
0.674715
0.676407
0.675186
0.675741
0.67412
0.673278
0.677498
0.67639
0.675952
0.671956
0.675847
0.674931
0.671797
0.676566
0.677375
0.677611
0.671933
0.676952
0.672598
0.674974
0.671594
0.671346
0.671341
0.67233
0.674418
0.673912
0.676161
0.67764
0.675643
0.673775
0.674322
0.676735
0.671897
0.67756
0.677093
0.671484
0.677585
0.677262
0.677659
0.673642
0.672049
0.671269
0.672493
0.677286
0.675653
0.67746
0.672957
0.676376
0.676182
0.675419
0.671458
0.672972
0.674175
0.675069
0.676741
0.67172
0.675607
0.671089
0.674781
0.671165
0.677948
0.67264
0.674541
0.678059
0.677168
0.672107
0.672638
0.670939
0.673528
0.675344
0.67112
0.676629
0.677034
0.674482
0.676427
0.673173
0.677006
0.677957
0.677625
0.678101
0.677767
0.677454
0.671636
0.676151
0.674841
0.671905
0.67805
0.675903
0.670897
0.677729
0.673394
0.671207
0.678154
0.675872
0.671362
0.673062
0.676802
0.677361
0.677968
0.675305
0.670664
0.676211
0.678248
0.674073
0.677745
0.674997
0.670715
0.672364
0.678203
0.674367
0.673733
0.675361
0.67077
0.677491
0.676698
0.674125
0.67285
0.677162
0.678421
0.675038
0.67825
0.677718
0.670815
0.678157
0.671756
0.670824
0.67648
0.675798
0.675676
0.672506
0.672293
0.678532
0.67175
0.67764
0.671153
0.675591
0.67786
0.677028
0.678514
0.677447
0.677044
0.670825
0.671959
0.67105
0.678335
0.670494
0.678621
0.672945
0.67848
0.676529
0.673336
0.673393
0.6703
0.670347
0.674517
0.673803
0.67191
0.674859
0.670346
0.671211
0.678595
0.678375
0.676931
0.675889
0.678145
0.676093
0.674831
0.67282
0.674361
0.676401
0.678724
0.678247
0.670375
0.670447
0.677348
0.67772
0.67845
0.678327
0.672212
0.676266
0.672438
0.678875
0.677701
0.670535
0.671859
0.67724
0.678953
0.671323
0.671083
0.67248
0.675592
0.678806
0.678714
0.66989
0.677211
0.678949
0.669738
0.673424
0.675664
0.678204
0.673069
0.678335
0.669943
0.677572
0.670008
0.675184
0.673896
0.676765
0.675922
0.6783
0.679078
0.670745
0.678053
0.670307
0.679146
0.678892
0.677071
0.674377
0.679275
0.674945
0.676522
0.678652
0.671605
0.673935
0.671239
0.679129
0.679316
0.679135
0.672423
0.669788
0.678857
0.670861
0.675388
0.672884
0.676046
0.678577
0.671293
0.677462
0.672086
0.678779
0.670024
0.678981
0.674819
0.670203
0.678423
0.676579
0.66948
0.670219
0.669636
0.670569
0.676994
0.676248
0.677898
0.671719
0.669809
0.669362
0.67816
0.673977
0.669436
0.674687
0.672861
0.679595
0.679723
0.678833
0.671346
0.677385
0.671749
0.679461
0.674569
0.679432
0.669454
0.678329
0.679641
0.669323
0.678067
0.676123
0.67298
0.679314
0.670309
0.67945
0.678862
0.679877
0.669279
0.675388
0.67778
0.669097
0.669049
0.669987
0.673592
0.673269
0.670848
0.67984
0.672053
0.678638
0.676914
0.675743
0.675652
0.677087
0.679906
0.676043
0.676613
0.673131
0.679295
0.680061
0.670482
0.679969
0.677286
0.671929
0.672397
0.674613
0.672418
0.670597
0.679577
0.670255
0.679485
0.671335
0.678899
0.66905
0.674589
0.679339
0.668864
0.6784
0.669631
0.669312
0.679265
0.677616
0.669459
0.673067
0.678178
0.670945
0.680402
0.67607
0.676543
0.680332
0.672557
0.678961
0.668794
0.680068
0.676438
0.671601
0.67682
0.678113
0.678858
0.671158
0.680548
0.669661
0.674608
0.668457
0.670645
0.675456
0.673777
0.680205
0.679946
0.680406
0.678586
0.66821
0.679556
0.674233
0.677638
0.668624
0.674967
0.673172
0.679718
0.668262
0.67582
0.668757
0.678027
0.677547
0.669906
0.680404
0.677021
0.680828
0.673771
0.668667
0.669388
0.680757
0.679386
0.680261
0.671931
0.679889
0.672752
0.675267
0.668224
0.671327
0.672289
0.680528
0.680391
0.677146
0.676271
0.679618
0.669175
0.67936
0.667877
0.677495
0.681074
0.667841
0.678532
0.667753
0.669876
0.671201
0.681065
0.675884
0.668033
0.670462
0.672482
0.678082
0.678738
0.679706
0.676214
0.671922
0.669282
0.676879
0.678439
0.673414
0.680585
0.680207
0.680522
0.675186
0.680742
0.67921
0.68143
0.68098
0.673853
0.681292
0.674331
0.66811
0.669902
0.668457
0.674816
0.672904
0.670571
0.677136
0.680063
0.681607
0.67672
0.670669
0.677746
0.680518
0.67952
0.680605
0.675787
0.680758
0.669878
0.671814
0.671334
0.668095
0.678088
0.674434
0.681334
0.671386
0.672399
0.680972
0.679234
0.677473
0.66756
0.681723
0.668659
0.673075
0.66717
0.675832
0.681338
0.670753
0.678465
0.66719
0.677482
0.666966
0.668554
0.681888
0.678132
0.681827
0.666949
0.66811
0.679716
0.667248
0.680763
0.673507
0.680259
0.681193
0.674
0.671093
0.682207
0.668057
0.667504
0.675917
0.680993
0.678607
0.676664
0.671623
0.666992
0.680016
0.681236
0.675038
0.666956
0.674464
0.666663
0.676247
0.677482
0.67554
0.670688
0.682314
0.673016
0.680514
0.668912
0.679315
0.672398
0.666484
0.666631
0.679311
0.67034
0.681948
0.668339
0.678955
0.669222
0.681984
0.668594
0.671883
0.675141
0.67667
0.681717
0.673615
0.677777
0.670782
0.667192
0.682241
0.68258
0.678234
0.678192
0.666904
0.682666
0.681164
0.671527
0.680852
0.672238
0.681803
0.669675
0.673075
0.680122
0.683055
0.68217
0.668807
0.674177
0.679809
0.681254
0.679937
0.667329
0.674682
0.672575
0.667047
0.682869
0.676246
0.676994
0.682905
0.665909
0.673356
0.676558
0.665714
0.682811
0.666246
0.682297
0.675808
0.675039
0.667403
0.669703
0.67902
0.678722
0.677597
0.678622
0.672526
0.669183
0.665844
0.666649
0.68328
0.665555
0.680806
0.671305
0.681722
0.670749
0.682036
0.679473
0.675819
0.681973
0.670617
0.665911
0.68351
0.674059
0.665349
0.683564
0.669664
0.677241
0.680999
0.68292
0.678102
0.680665
0.676709
0.667871
0.683216
0.683135
0.666833
0.665404
0.667644
0.683393
0.665604
0.665119
0.679803
0.666127
0.68278
0.673125
0.666669
0.673744
0.679477
0.665909
0.671725
0.667268
0.675819
0.68137
0.664925
0.665055
0.666932
0.680053
0.665554
0.674918
0.676662
0.675524
0.67066
0.68279
0.683237
0.683422
0.678624
0.684067
0.666029
0.68345
0.673464
0.68248
0.669554
0.684024
0.681947
0.678121
0.680871
0.684204
0.6722
0.678738
0.670061
0.668229
0.66747
0.6829
0.684346
0.683935
0.681652
0.68335
0.682098
0.679627
0.672267
0.671488
0.680236
0.680681
0.675436
0.664327
0.682728
0.668478
0.679545
0.677101
0.684007
0.664342
0.676632
0.674284
0.667708
0.664151
0.684619
0.682501
0.664882
0.673906
0.672677
0.678041
0.679152
0.665973
0.681401
0.683539
0.684897
0.665151
0.674477
0.669684
0.684045
0.664965
0.676202
0.676015
0.684572
0.664316
0.663857
0.684066
0.682187
0.666358
0.683415
0.66399
0.685034
0.680178
0.667706
0.663726
0.680051
0.668778
0.684468
0.665925
0.66417
0.666503
0.6713
0.683629
0.68108
0.684602
0.668376
0.68407
0.681793
0.664953
0.663534
0.670021
0.663705
0.677934
0.681309
0.684248
0.67883
0.673334
0.670068
0.664022
0.664064
0.67988
0.682927
0.670683
0.68571
0.665681
0.677287
0.675759
0.685389
0.683589
0.6853
0.685344
0.666316
0.672004
0.683125
0.663429
0.673471
0.68358
0.672743
0.681471
0.664418
0.686104
0.679161
0.680271
0.685882
0.674365
0.664807
0.662753
0.680684
0.66267
0.684471
0.666961
0.678382
0.683203
0.686275
0.675818
0.668485
0.68252
0.669069
0.685141
0.664609
0.676841
0.685363
0.66376
0.681318
0.682481
0.669204
0.664517
0.674464
0.684515
0.667187
0.683058
0.666299
0.678632
0.685942
0.662499
0.66241
0.665313
0.68094
0.685534
0.684322
0.686347
0.670781
0.679831
0.662078
0.662668
0.684149
0.686578
0.66377
0.667807
0.685128
0.680792
0.686852
0.685394
0.673183
0.669431
0.663017
0.661923
0.662441
0.662015
0.66439
0.665742
0.679462
0.67519
0.673827
0.662586
0.670637
0.687024
0.663369
0.677028
0.671502
0.661968
0.682565
0.67592
0.683082
0.672111
0.687498
0.676364
0.661498
0.681757
0.68491
0.674272
0.661423
0.686431
0.681954
0.687585
0.686744
0.667075
0.664514
0.668074
0.683456
0.686693
0.666814
0.684797
0.685613
0.678495
0.679411